HEADER
"PSFversion" "1.00"
"VOUTv" "voutv"
"VINv" "vinv"
"GND!v" "0v"
"VDD!v" "vdd!v"
