HEADER
"PSFversion" "1.00"
"Time Stamp" "Feb 26 13:57:11 2020"
TYPE
"variable" STRUCT(
"value" FLOAT DOUBLE
) PROP( "key" "element" )
VALUE
"TEMPDC" "variable" ( 25.0 ) PROP( )
END
