HEADER
"PSFversion" "1.00"
"GND!v" "0v"
"VDD!v" "vdd!v"
