HEADER
"PSFversion" "1.00"
"Time Stamp" "Feb  3 13:16:37 2020"
TYPE
"variable" STRUCT(
"value" FLOAT DOUBLE
) PROP( "key" "element" )
VALUE
"TEMPDC" "variable" ( 25.0 ) PROP( )
END
